LIGPARGEN GENERATED GRO FILE
   19
    1UNK    C00    1   0.100   0.100   0.000
    1UNK    C01    2  -0.051   0.100   0.000
    1UNK    O02    3  -0.112   0.100   0.106
    1UNK    N03    4  -0.104   0.100  -0.128
    1UNK    C04    5  -0.241   0.095  -0.163
    1UNK    C05    6  -0.344   0.094  -0.069
    1UNK    C06    7  -0.478   0.088  -0.110
    1UNK    C07    8  -0.509   0.084  -0.245
    1UNK    C08    9  -0.407   0.084  -0.340
    1UNK    C09   10  -0.273   0.090  -0.299
    1UNK    H0A   11   0.136   0.125   0.100
    1UNK    H0B   12   0.139   0.175  -0.070
    1UNK    H0C   13   0.137   0.001  -0.027
    1UNK    H0D   14  -0.038   0.100  -0.205
    1UNK    H0E   15  -0.325   0.097   0.038
    1UNK    H0F   16  -0.557   0.088  -0.035
    1UNK    H0G   17  -0.613   0.080  -0.277
    1UNK    H0H   18  -0.431   0.080  -0.446
    1UNK    H0I   19  -0.196   0.090  -0.375
   1.00000   1.00000   1.00000

