LIGPARGEN GENERATED GRO FILE
   19
    1UNK    C00    1   0.819   0.507   0.634
    1UNK    C01    2   0.668   0.507   0.634
    1UNK    O02    3   0.607   0.507   0.740
    1UNK    N03    4   0.615   0.507   0.506
    1UNK    C04    5   0.478   0.502   0.471
    1UNK    C05    6   0.375   0.501   0.565
    1UNK    C06    7   0.241   0.495   0.524
    1UNK    C07    8   0.210   0.491   0.389
    1UNK    C08    9   0.312   0.491   0.294
    1UNK    C09   10   0.446   0.497   0.335
    1UNK    H0A   11   0.855   0.532   0.734
    1UNK    H0B   12   0.858   0.582   0.564
    1UNK    H0C   13   0.856   0.408   0.607
    1UNK    H0D   14   0.681   0.507   0.429
    1UNK    H0E   15   0.394   0.504   0.672
    1UNK    H0F   16   0.162   0.495   0.599
    1UNK    H0G   17   0.106   0.487   0.357
    1UNK    H0H   18   0.288   0.487   0.188
    1UNK    H0I   19   0.523   0.497   0.259
   1.00000   1.00000   1.00000
