
;
; GENERATED BY LigParGen Server
; Jorgensen Lab @ Yale University 
;
[ atomtypes ]
  opls_803  N803    14.0070     0.000    A    3.25000E-01   7.11280E-01
  opls_805  C805    12.0110     0.000    A    3.55000E-01   2.92880E-01
  opls_807  C807    12.0110     0.000    A    3.55000E-01   2.92880E-01
  opls_800  C800    12.0110     0.000    A    3.50000E-01   2.76144E-01
  opls_810  H810     1.0080     0.000    A    2.50000E-01   1.25520E-01
  opls_802  O802    15.9990     0.000    A    2.96000E-01   8.78640E-01
  opls_812  H812     1.0080     0.000    A    2.50000E-01   1.25520E-01
  opls_818  H818     1.0080     0.000    A    2.42000E-01   1.25520E-01
  opls_804  C804    12.0110     0.000    A    3.55000E-01   2.92880E-01
  opls_806  C806    12.0110     0.000    A    3.55000E-01   2.92880E-01
  opls_811  H811     1.0080     0.000    A    2.50000E-01   1.25520E-01
  opls_815  H815     1.0080     0.000    A    2.42000E-01   1.25520E-01
  opls_813  H813     1.0080     0.000    A    0.00000E+00   0.00000E+00
  opls_817  H817     1.0080     0.000    A    2.42000E-01   1.25520E-01
  opls_809  C809    12.0110     0.000    A    3.55000E-01   2.92880E-01
  opls_801  C801    12.0110     0.000    A    3.55000E-01   2.92880E-01
  opls_814  H814     1.0080     0.000    A    2.42000E-01   1.25520E-01
  opls_808  C808    12.0110     0.000    A    3.55000E-01   2.92880E-01
  opls_816  H816     1.0080     0.000    A    2.42000E-01   1.25520E-01
[ moleculetype ]
; Name               nrexcl
UNK                   3
[ atoms ]
;   nr       type  resnr residue  atom   cgnr     charge       mass  
     1   opls_800      1    UNK   C00      1    -0.2878    12.0110 
     2   opls_801      1    UNK   C01      1      0.588    12.0110 
     3   opls_802      1    UNK   O02      1    -0.4284    15.9990 
     4   opls_803      1    UNK   N03      1    -0.9778    14.0070 
     5   opls_804      1    UNK   C04      1     0.2496    12.0110 
     6   opls_805      1    UNK   C05      1     -0.159    12.0110 
     7   opls_806      1    UNK   C06      1    -0.1071    12.0110 
     8   opls_807      1    UNK   C07      1    -0.1664    12.0110 
     9   opls_808      1    UNK   C08      1    -0.1065    12.0110 
    10   opls_809      1    UNK   C09      1    -0.1947    12.0110 
    11   opls_810      1    UNK   H0A      1     0.1203     1.0080 
    12   opls_811      1    UNK   H0B      1     0.1203     1.0080 
    13   opls_812      1    UNK   H0C      1     0.1203     1.0080 
    14   opls_813      1    UNK   H0D      1     0.4964     1.0080 
    15   opls_814      1    UNK   H0E      1     0.1763     1.0080 
    16   opls_815      1    UNK   H0F      1     0.1443     1.0080 
    17   opls_816      1    UNK   H0G      1     0.1396     1.0080 
    18   opls_817      1    UNK   H0H      1     0.1393     1.0080 
    19   opls_818      1    UNK   H0I      1     0.1333     1.0080 
[ bonds ]
    2     1     1      0.1522 265265.600
    3     2     1      0.1229 476976.000
    4     2     1      0.1335 410032.000
    5     4     1      0.1381 357313.600
    6     5     1      0.1400 392459.200
    7     6     1      0.1400 392459.200
    8     7     1      0.1400 392459.200
    9     8     1      0.1400 392459.200
   10     5     1      0.1400 392459.200
   11     1     1      0.1090 284512.000
   12     1     1      0.1090 284512.000
   13     1     1      0.1090 284512.000
   14     4     1      0.1010 363171.200
   15     6     1      0.1080 307105.600
   16     7     1      0.1080 307105.600
   17     8     1      0.1080 307105.600
   18     9     1      0.1080 307105.600
   19    10     1      0.1080 307105.600
   10     9     1      0.1400 392459.200

[ angles ]
;  ai    aj    ak funct            c0            c1            c2            c3 
    1     2     3     1    120.400    669.440
    1     2     4     1    116.600    585.760
    2     4     5     1    121.900    418.400
    4     5     6     1    120.000    585.760
    5     6     7     1    120.000    527.184
    6     7     8     1    120.000    527.184
    7     8     9     1    120.000    527.184
    4     5    10     1    120.000    585.760
    2     1    11     1    109.500    292.880
    2     1    12     1    109.500    292.880
    2     1    13     1    109.500    292.880
    2     4    14     1    119.800    292.880
    5     6    15     1    120.000    292.880
    6     7    16     1    120.000    292.880
    7     8    17     1    120.000    292.880
    8     9    18     1    120.000    292.880
    5    10    19     1    120.000    292.880
    5     4    14     1    119.800    292.880
   10     9    18     1    120.000    292.880
   11     1    13     1    107.800    276.144
    6     5    10     1    120.000    527.184
    9    10    19     1    120.000    292.880
    5    10     9     1    120.000    527.184
    7     6    15     1    120.000    292.880
   11     1    12     1    107.800    276.144
   12     1    13     1    107.800    276.144
    3     2     4     1    122.900    669.440
    8     9    10     1    120.000    527.184
    9     8    17     1    120.000    292.880
    8     7    16     1    120.000    292.880

[ dihedrals ]
; IMPROPER DIHEDRAL ANGLES 
;  ai    aj    ak    al funct            c0            c1            c2            c3            c4            c5
    10     5     4     6    4        180.000     10.460     2  
    14     4     2     5    4        180.000     10.460     2  
    19    10     5     9    4        180.000     10.460     2  
    18     9     8    10    4        180.000     10.460     2  
    17     8     7     9    4        180.000     10.460     2  
    16     7     6     8    4        180.000     10.460     2  
    15     6     5     7    4        180.000     10.460     2  
     4     2     1     3    4        180.000     43.932     2  

[ dihedrals ]
; PROPER DIHEDRAL ANGLES
;  ai    aj    ak    al funct            c0            c1            c2            c3            c4            c5
    8    9   10    5        3      30.334   0.000  -30.334  -0.000  -0.000   0.000
    8    7    6    5        3      30.334   0.000  -30.334  -0.000  -0.000   0.000
    9    8    7    6        3      30.334   0.000  -30.334  -0.000  -0.000   0.000
   10    9    8    7        3      30.334   0.000  -30.334  -0.000  -0.000   0.000
    9   10    5    6        3      30.334   0.000  -30.334  -0.000  -0.000   0.000
   10    5    6    7        3      30.334   0.000  -30.334  -0.000  -0.000   0.000
    7    6    5    4        3      30.334   0.000  -30.334  -0.000  -0.000   0.000
    9   10    5    4        3      30.334   0.000  -30.334  -0.000  -0.000   0.000
    6    5    4    2        3       8.786   0.000  -8.786  -0.000  -0.000   0.000
   10    5    4    2        3       8.786   0.000  -8.786  -0.000  -0.000   0.000
    5    4    2    1        3      30.288  -4.812  -25.476  -0.000  -0.000   0.000
    5    4    2    3        3      25.476   0.000  -25.476  -0.000  -0.000   0.000
   14    4    2    1        3      20.502   0.000  -20.502  -0.000  -0.000   0.000
   14    4    2    3        3      20.502   0.000  -20.502  -0.000  -0.000   0.000
   14    4    5   10        3       8.786   0.000  -8.786  -0.000  -0.000   0.000
   14    4    5    6        3       8.786   0.000  -8.786  -0.000  -0.000   0.000
   15    6    5   10        3      30.334   0.000  -30.334  -0.000  -0.000   0.000
   19   10    9    8        3      30.334   0.000  -30.334  -0.000  -0.000   0.000
   17    8    7    6        3      30.334   0.000  -30.334  -0.000  -0.000   0.000
   16    7    6    5        3      30.334   0.000  -30.334  -0.000  -0.000   0.000
   18    9   10    5        3      30.334   0.000  -30.334  -0.000  -0.000   0.000
   15    6    7    8        3      30.334   0.000  -30.334  -0.000  -0.000   0.000
   18    9    8    7        3      30.334   0.000  -30.334  -0.000  -0.000   0.000
   17    8    9   10        3      30.334   0.000  -30.334  -0.000  -0.000   0.000
   16    7    8    9        3      30.334   0.000  -30.334  -0.000  -0.000   0.000
   19   10    5    6        3      30.334   0.000  -30.334  -0.000  -0.000   0.000
   18    9    8   17        3      30.334   0.000  -30.334  -0.000  -0.000   0.000
   17    8    7   16        3      30.334   0.000  -30.334  -0.000  -0.000   0.000
   16    7    6   15        3      30.334   0.000  -30.334  -0.000  -0.000   0.000
   19   10    9   18        3      30.334   0.000  -30.334  -0.000  -0.000   0.000
   19   10    5    4        3      30.334   0.000  -30.334  -0.000  -0.000   0.000
   15    6    5    4        3      30.334   0.000  -30.334  -0.000  -0.000   0.000
   11    1    2    4        3       0.000   0.000   0.000  -0.000  -0.000   0.000
   12    1    2    4        3       0.000   0.000   0.000  -0.000  -0.000   0.000
   13    1    2    4        3       0.000   0.000   0.000  -0.000  -0.000   0.000
   12    1    2    3        3       0.000   0.000   0.000  -0.000  -0.000   0.000
   13    1    2    3        3       0.000   0.000   0.000  -0.000  -0.000   0.000
   11    1    2    3        3       0.000   0.000   0.000  -0.000  -0.000   0.000

[ pairs ]
     1     5    1
     3     5    1
     2     6    1
     4     7    1
     2    10    1
     5     8    1
     4     9    1
     3    11    1
     6     9    1
     4    11    1
     3    12    1
     1    14    1
     4    12    1
     3    13    1
     7    10    1
     4    13    1
     3    14    1
     4    15    1
     6    14    1
     5    16    1
     8    15    1
     6    17    1
     5    18    1
     4    19    1
    10    14    1
    10    15    1
     9    16    1
     7    18    1
     6    19    1
    10    17    1
     8    19    1
    15    16    1
    16    17    1
    17    18    1
    18    19    1

