LIGPARGEN GENERATED GRO FILE
   19
    1UNK    C00    1   2.449   2.137   1.138
    1UNK    C01    2   2.298   2.137   1.138
    1UNK    O02    3   2.237   2.137   1.244
    1UNK    N03    4   2.245   2.137   1.010
    1UNK    C04    5   2.108   2.132   0.975
    1UNK    C05    6   2.005   2.131   1.069
    1UNK    C06    7   1.871   2.125   1.028
    1UNK    C07    8   1.840   2.121   0.893
    1UNK    C08    9   1.942   2.121   0.798
    1UNK    C09   10   2.076   2.127   0.839
    1UNK    H0A   11   2.485   2.162   1.238
    1UNK    H0B   12   2.488   2.212   1.068
    1UNK    H0C   13   2.486   2.038   1.111
    1UNK    H0D   14   2.311   2.137   0.933
    1UNK    H0E   15   2.024   2.134   1.176
    1UNK    H0F   16   1.792   2.125   1.103
    1UNK    H0G   17   1.736   2.117   0.861
    1UNK    H0H   18   1.918   2.117   0.692
    1UNK    H0I   19   2.153   2.127   0.763
   2.83974   2.83974   2.00800   0.00000   0.00000   0.00000   0.00000   1.41987   1.41987
