; --- Force field and ligand includes --- 
#include "oplsaa.ff/forcefield.itp" 
#include "acetanilide.itp" 

; If using SPC/E water (matches spc216.gro), include its definition: 
#include "oplsaa.ff/spce.itp" 

; --- System title --- 
[ system ] 
Acetanilide  in water (OPLS-AA / SPC/E) 

; --- Molecule counts (this must be the last section) --- 
[ molecules ] 
UNK    1 
SOL               514